 # AgNb_sv/317 - (317) - alphaGa [A4] (317) ortho Fmmm
  
           4  atoms
           1  atom types
 
      0.000000000000       5.779813912593  xlo xhi
      0.000000000000       4.428304655851  ylo yhi
      0.000000000000       2.921268885423  zlo zhi
      2.065482571718      -0.000000150817       0.000000074488  xy xz yz
 
Masses
 
            1   107.86820000            # Ag
 
Atoms # atomic
 
         1    1        4.526075461935       0.584774626651       2.921264371981
         2    1       -2.460593039966       3.843530103283       0.000004513410
         3    1       -0.220997089555       2.798926917460       1.460639099696
         4    1        2.286479509387       1.629377813282       1.460629785759
