 # Ag
  
           3  atoms
           1  atom types
 
      0.000000000000       7.402712190000  xlo xhi
      0.000000000000       2.887178110000  ylo yhi
      0.000000000000       2.533800000000  zlo zhi
     -0.586235800000      -0.586236510000       1.384071900000  xy xz yz
 
Masses
 
            1   24.30500000             # Mg
 
Atoms # atomic
 
         1    1        7.454850390000       0.049509240000       0.044958970000
         2    1       16.411710910000       3.371200140000       2.015510020000
         3    1        4.728247850000       0.998947820000       0.608263110000
