 # Ag with diamond structure oriented X=
  
           7  atoms
           1  atom types
 
      0.000000000000       5.531157489388  xlo xhi
      0.000000000000       5.531157709785  ylo yhi
      0.000000000000       5.531157755779  zlo zhi
      0.000000266265      -0.000000575916       0.000000492906  xy xz yz
 
Masses
 
            1   107.86820000            # Ag
 
Atoms # atomic
 
         1    1        2.765579166002       2.765579076494       0.000000258436
         2    1        0.000000279222       2.765578604853       2.765578866521
         3    1        2.765578035461       0.000000162172       2.765578821094
         4    1        0.978552483654       0.978552971587       0.978551966598
         5    1        4.552605235347       4.552605428060       0.978553226469
         6    1        4.552604273806       0.978552907247       4.552605042909
         7    1        0.978552075289       4.552605447614       4.552605082246
