 #  Simple cubic Ag oriented X=[100] Y=[
  
           8  atoms
           1  atom types
 
      0.000000000000       5.483455640000  xlo xhi
      0.000000000000       5.483455630000  ylo yhi
      0.000000000000       5.483455640000  zlo zhi
      0.000000000000       0.000000000000      -0.000000010000  xy xz yz
 
Masses
 
            1   107.86820000            # Ag
 
Atoms # atomic
 
         1    1        2.741727820000      -0.000000000000       2.741727820000
         2    1        0.000000000000      -0.000000000000       2.741727820000
         3    1        2.741727820000       2.741727810000       2.741727820000
         4    1        0.000000000000       2.741727810000       2.741727810000
         5    1        2.741727820000       0.000000000000       0.000000000000
         6    1        5.483455630000      -0.000000010000       5.483455630000
         7    1        2.741727810000       2.741727810000       5.483455630000
         8    1        5.483455630000       2.741727810000       5.463455630000
