LAMMPS data file via write_data, version 23 Jun 2022, timestep = 7

1 atoms
1 atom types

-0.004691537795624472 2.7464193571246236 xlo xhi
-0.004691537791895852 2.7464193549418963 ylo yhi
-0.004691537794847604 2.746419356669847 zlo zhi
0 0 0 xy xz yz

Masses

1 107.8682

Atoms # atomic

1 1 2.746419352993534 2.746419350728525 2.7464193566387407 0 -1 0

Velocities

1 0 0 0
