 # Ag with diamond structure oriented X=
  
           8  atoms
           1  atom types
 
      0.000000000000       6.195729578713  xlo xhi
      0.000000000000       6.195729596108  ylo yhi
      0.000000000000       6.195729576304  zlo zhi
      0.000000005524      -0.000000007773      -0.000000001259  xy xz yz
 
Masses
 
            1   107.86820000            # Ag
 
Atoms # atomic
 
         1    1        6.195729567997       0.000000011253       0.000000003431
         2    1        3.097864789777       3.097864773955       6.195729559586
         3    1       -0.000000004875       3.097864790757       3.097864805416
         4    1        3.097864796586       0.000000010235       3.097864782783
         5    1        1.548932398702       1.548932393120       1.548932377610
         6    1        4.646797189365       4.646797214494       1.548932388166
         7    1        4.646797171954       1.548932399744       4.646797200745
         8    1        1.548932390826       4.646797189729       4.646797187478
