 # Fcc Ag oriented X=[100] Y=[010] Z=[001
  
          33  atoms
           1  atom types
 
      0.000000000000       8.620318867125  xlo xhi
      0.000000000000       8.587452531562  ylo yhi
      0.000000000000       8.190895730927  zlo zhi
      0.752034832365       0.000000000000       0.000000000000  xy xz yz
 
Masses
 
            1   107.86820000            # Ag
 
Atoms # atomic
 
         1    1        2.761492461947       2.530227325344       0.000000000000
         2    1        0.233756659971       2.233054589908       2.213675708397
         3    1        2.244933597018       0.038054205686       2.213675708397
         4    1        4.310159433563      -0.000000000000       0.000000000000
         5    1        6.757063411386       2.033558741608       0.000000000000
         6    1        4.586043389820       2.166578753813       2.084607738393
         7    1        6.375385270107      -0.038054205686       2.213675708397
         8    1        0.376017416183       4.293726265781       0.000000000000
         9    1        2.615290288105       6.553893789954       0.000000000000
        10    1        0.518278172395       6.354397941653       2.213675708397
        11    1        2.558403803397       4.379546488913       2.084607738393
        12    1        4.686176849745       4.293726265781       0.000000000000
        13    1        6.610861237543       6.057225206218       0.000000000000
        14    1        4.786310309670       6.420873777748       2.084607738393
        15    1        6.813949896094       4.207906042648       2.084607738393
        16    1        0.000000000000       0.000000000000       4.095447865464
        17    1        2.449982774084       2.244805461912       4.095447865464
        18    1        0.233756659971       2.233054589908       5.977220022530
        19    1        2.244933597018       0.038054205686       5.977220022530
        20    1        4.310159433563       0.000000000000       4.095447865464
        21    1        6.658490544626       2.141141260293       4.095447865464
        22    1        4.586043389820       2.166578753813       6.106287992534
        23    1        6.375385270107      -0.038054205686       5.977220022530
        24    1        0.376017416183       4.293726265781       4.095447865464
        25    1        2.713863154864       6.446311271268       4.095447865464
        26    1        0.518278172395       6.354397941653       5.977220022530
        27    1        2.558403803397       4.379546488913       6.106287992534
        28    1        4.686176849745       4.293726265781       4.095447865464
        29    1        6.922370925406       6.342647069649       4.095447865464
        30    1        4.786310309670       6.420873777748       6.106287992534
        31    1        6.813949896094       4.207906042648       6.106287992534
        32    1        0.909968582967       0.833761962256       0.000000000000
        33    1        8.462385116523       7.753690569306       0.000000000000
