LAMMPS data file via write_data, version 23 Jun 2022, timestep = 9

8 atoms
1 atom types

0.006722184004580267 6.189007394708419 xlo xhi
0.006722184023453329 6.189007412084547 ylo yhi
0.006722184001966572 6.189007392302034 zlo zhi
0 0 0 xy xz yz

Masses

1 107.8682

Atoms # atomic

1 1 6.189007394423135 6.189007412029777 6.189007392240918 0 -1 -1
2 1 3.0978647878224383 3.097864800054234 0.006722184126039209 0 0 1
3 1 6.189007391422246 3.097864794986785 3.097864791987455 -1 0 0
4 1 3.09786478723509 6.189007410881167 3.09786478428847 0 -1 0
5 1 1.552293484450336 1.5522934931419805 1.552293485723454 0 0 0
6 1 4.643436093760366 4.643436103425002 1.5522934864959703 0 0 0
7 1 4.643436086686282 1.5522934876125682 4.643436091770246 0 0 0
8 1 1.5522934852674515 4.643436105335511 4.643436088582447 0 0 0

Velocities

1 0 0 0
2 0 0 0
3 0 0 0
4 0 0 0
5 0 0 0
6 0 0 0
7 0 0 0
8 0 0 0
