 # Ag
  
          23  atoms
           1  atom types
 
      0.000000000000      14.633464480187  xlo xhi
      0.000000000000       5.731099424113  ylo yhi
      0.000000000000       5.030234412366  zlo zhi
     -1.168957161407      -1.168967076382       2.746338301793  xy xz yz
 
Masses
 
            1   107.86820000            # Ag
 
Atoms # atomic
 
         1    1       14.703653522064       0.111548226965       0.096119138081
         2    1       21.435936145607       1.484744620923       2.611187431474
         3    1       21.435947142603       2.977104828777       0.096077981151
         4    1       28.168168872608       4.350263781610       2.611234179314
         5    1        7.386956107807       0.111573526331       0.096091905225
         6    1       14.119180883050       1.484726023431       2.611235044503
         7    1       14.119185104696       2.977099995012       0.096128220116
         8    1       16.257879283541       3.413320385239       2.055268943404
         9    1       22.926192257719       4.773482101432       4.553058114165
        10    1       22.926197011056       6.257465783683       2.052106706505
        11    1       29.702840513467       7.648382419356       4.568218477081
        12    1       23.507372342106       3.408054647268       2.052106149491
        13    1       30.287449840389       4.782201412058       4.568216082926
        14    1       30.287452678443       6.274910427174       2.052541992927
        15    1       37.000493293011       7.644196984874       4.565697215306
        16    1        4.702373950990       1.056361646209       0.656715119622
        17    1       11.415413234696       2.425639297577       3.169919153918
        18    1       11.415416618414       3.918353539123       0.654236196708
        19    1       18.195602794060       5.292533662977       3.170320225310
        20    1       12.000030185743       1.052158080093       0.654236144689
        21    1       18.776780744785       2.443117790506       3.170327274764
        22    1       18.776797654625       3.927096107114       0.669376720070
        23    1       25.445087091292       5.287248969569       3.167198481704
