 # AgNb_sv/317 - (317) - alphaGa [A4] (31
  
          32  atoms
           1  atom types
 
      0.000000000000      11.559627828462  xlo xhi
      0.000000000000       8.856609308702  ylo yhi
      0.000000000000       5.842537770000  zlo zhi
      4.130965146517      -0.000000300810       0.000000144862  xy xz yz
 
Masses
 
            1   107.86820000            # Ag
 
Atoms # atomic
 
         1    1        4.526075458965       0.584774625204       2.921264373307
         2    1       -2.460593045174       3.843530105805       0.000004516693
         3    1       -0.220997091321       2.798926920696       1.460639103307
         4    1        2.286479509339       1.629377819376       1.460629786693
         5    1       10.305889377424       0.584774634267       2.921264378307
         6    1        3.319220869057       3.843530105805       0.000004511693
         7    1        5.558816822910       2.798926920696       1.460639098307
         8    1        8.066293423570       1.629377819376       1.460629791693
         9    1        0.811744117993       5.013079279555       2.921264368307
        10    1       -6.174924386147       8.271834760156       0.000004511693
        11    1       -3.935328432293       7.227231575047       1.460639098307
        12    1       -1.427851835861       6.057682464664       1.460629781693
        13    1        6.591558032224       5.013079279555       2.921264373307
        14    1       -0.395110471916       8.271834760156       0.000004506693
        15    1        1.844485481938       7.227231575047       1.460639103307
        16    1        4.351962082598       6.057682473727       1.460629786693
        17    1        4.526075312787       0.584774706698       5.842533253307
        18    1       -2.460593195579       3.843530178236       2.921273396693
        19    1       -0.220997241726       2.798926993127       4.381907983307
        20    1        2.286479358934       1.629377891807       4.381898666693
        21    1       10.305889227019       0.584774706698       5.842533258307
        22    1        3.319220718652       3.843530178236       2.921273401693
        23    1        5.558816672505       2.798926993127       4.381907988307
        24    1        8.066293273165       1.629377891807       4.381898671693
        25    1        0.811743971815       5.013079361049       5.842533258307
        26    1       -6.174924536552       8.271834832587       2.921273391693
        27    1       -3.935328582698       7.227231647478       4.381907978307
        28    1       -1.427851982039       6.057682546158       4.381898671693
        29    1        6.591557876983       5.013079365276       5.842533253307
        30    1       -0.395110622321       8.271834832587       2.921273396693
        31    1        1.844485331533       7.227231647478       4.381907983307
        32    1        4.351961932660       6.057682546076       4.361898666693
