LAMMPS data file via write_data, version 23 Jun 2022, timestep = 470

4 atoms
1 atom types

0.05237845812384941 5.727435454469154 xlo xhi
0.04013066397704838 4.3881739918739475 ylo yhi
0.026473440546286954 2.894795444876713 zlo zhi
0 0 0 xy xz yz

Masses

1 107.8682

Atoms # atomic

1 1 4.613312251900705 1.127141532521128 2.1777149437935335 0 0 0
2 1 3.194548002814382 3.3011631964695782 0.7435539416283404 -1 0 0
3 1 0.3570195046417269 3.3011631964695787 0.7435539416283197 0 0 0
4 1 1.7757837537280532 1.1271415325211271 2.177714943793555 0 0 0

Velocities

1 0 0 0
2 0 0 0
3 0 0 0
4 0 0 0
