 # AgNb_sv/317 - (317) - alphaGa [A4] (31
  
          31  atoms
           1  atom types
 
      0.000000000000      12.664674908565  xlo xhi
      0.000000000000       7.792017853237  ylo yhi
      0.000000000000       5.699914985122  zlo zhi
      2.680765415854      -1.327589710929       0.456743901494  xy xz yz
 
Masses
 
            1   107.86820000            # Ag
 
Atoms # atomic
 
         1    1       -2.877018641820       3.168386461129       0.551649388559
         2    1       -0.232494097159       2.258564314641       1.260891945922
         3    1        2.450741405992       1.335424025796       1.974834916238
         4    1        9.419435063497       1.083950971146       5.193918996100
         5    1        2.114654904604       3.634127239347       0.199413929667
         6    1        4.795983413978       2.702616946212       0.903668476769
         7    1        7.467956506764       1.755367571965       1.609308501126
         8    1       -1.884835925040       5.038154315312       5.193918987261
         9    1       -9.212405338490       7.522090565332       0.199413964652
        10    1       -6.525523359003       6.606722079488       0.903668452067
        11    1       -3.836332994537       5.709517178473       1.609308552742
        12    1        5.815581834867       4.534938704184       5.542212605314
        13    1        4.484091346215       0.635870530033       5.543493396865
        14    1        1.099146137310       6.157580987163       1.259656634949
        15    1        3.805541908294       5.226472710831       1.979049027290
        16    1        5.129004388755       0.413994657188       2.689533778062
        17    1       -3.540853224298       3.396772092174       3.401601094379
        18    1       -0.878899041722       2.480953461219       4.118862206807
        19    1        1.777536095878       1.567033501343       4.823957721266
        20    1       10.093728275232       0.855988967446       2.321585113893
        21    1        1.454154992017       3.860156086320       3.041490862939
        22    1        4.128859543894       2.933346999377       3.761538953253
        23    1        6.796105341855       1.990538429871       4.481641351659
        24    1       -1.213017186188       4.802999971791       2.321585083311
        25    1       -9.872161064026       7.750282463946       3.041490877878
        26    1       -7.193393393994       6.835283236590       3.761538938651
        27    1       -4.510661882818       5.937486112940       4.481641422517
        28    1        6.461869357684       4.312590006086       2.684213043963
        29    1       -2.200474549865       7.292782417149       3.401611939558
        30    1        0.454019909840       6.379530191267       4.113560428983
        31    1        3.132272445399       5.458104292918       4.828163546332
