 # Fcc Ag oriented X=[100] Y=[010] Z=[001
  
          33  atoms
           1  atom types
 
      0.000000000000       8.451900718694  xlo xhi
      0.000000000000       8.451900718694  ylo yhi
      0.000000000000       8.451900718694  zlo zhi
 
Masses
 
            1   107.86820000            # Ag
 
Atoms # atomic
 
         1    1        0.000000000000       0.000000000000      -0.507350287938
         2    1        2.077023555023       2.077023555023       0.035951624650
         3    1       -0.000000000000       2.620325467612       2.112975179673
         4    1        2.620325467612       0.000000000000       2.112975179673
         5    1        4.225950359347       0.000000000000      -0.141357477728
         6    1        6.374877163671       2.077023555023       0.035951624650
         7    1        4.225950359347       2.254332657401       2.112975179673
         8    1        5.831575251082       0.000000000000       2.112975179673
         9    1        0.000000000000       4.225950359347      -0.141357477728
        10    1        2.077023555023       6.374877163671       0.035951624650
        11    1       -0.000000000000       5.831575251082       2.112975179673
        12    1        2.254332657401       4.225950359347       2.112975179673
        13    1        4.225950359347       4.225950359347      -0.050623323006
        14    1        6.374877163671       6.374877163671       0.035951624650
        15    1        4.225950359347       6.197568061293       2.112975179673
        16    1        6.197568061293       4.225950359347       2.112975179673
        17    1        0.000000000000      -0.000000000000       4.733300647285
        18    1        2.077023555023       2.077023555023       4.189998734697
        19    1       -0.000000000000       2.254332657401       6.338925539020
        20    1        2.254332657401       0.000000000000       6.338925539020
        21    1        4.225950359347       0.000000000000       4.367307837075
        22    1        6.374877163671       2.077023555023       4.189998734697
        23    1        4.225950359347       2.163598502680       6.338925539020
        24    1        6.197568061293       0.000000000000       6.338925539020
        25    1       -0.000000000000       4.225950359347       4.367307837075
        26    1        2.077023555023       6.374877163671       4.189998734697
        27    1       -0.000000000000       6.197568061293       6.338925539020
        28    1        2.163598502680       4.225950359347       6.338925539020
        29    1        4.225950359347       4.225950359347       4.276573682353
        30    1        6.374877163671       6.374877163671       4.189998734697
        31    1        4.225950359347       6.288302216014       6.338925539020
        32    1        6.288302216014       4.225950359347       6.338925539020
        33    1        0.000000000000      -0.000000000000       2.112975179673
