 # Bcc Ag oriented X=[100] Y=[010] Z=[00
  
          15  atoms
           1  atom types
 
      0.000000000000       6.532340150076  xlo xhi
      0.000000000000       6.532339977237  ylo yhi
      0.000000000000       6.532339948727  zlo zhi
      0.000000000976       0.000000119695       0.000000130709  xy xz yz
 
Masses
 
            1   107.86820000            # Ag
 
Atoms # atomic
 
         1    1        1.578704375758       1.578704337928       1.578705870914
         2    1        3.266170075081       6.532339970927       0.000000000306
         3    1        4.953635927001       1.578704224130       1.578704178566
         4    1        0.000000003414       3.266169988839       0.000000000769
         5    1        1.578704264914       4.953635803587       1.578704184581
         6    1        3.266170069230       3.266169993273       0.000000003928
         7    1        4.953636053266       4.953635925552       1.578702496096
         8    1        6.532340205304       0.000000071270       3.266169976787
         9    1        1.578704215488       1.578704181614       4.953637461534
        10    1        3.266170132038       0.000000066772       3.266169978505
        11    1        4.953635996187       1.578704310148       4.953635763908
        12    1        6.532340207118       3.266170053812       3.266169976057
        13    1        1.578704334746       4.953635885085       4.953635764978
        14    1        3.266170129459       3.266170050896       3.266169971051
        15    1        4.953635886618       4.953635761077       4.953634074382
