 # Ag
  
          30  atoms
           1  atom types
 
      0.000000000000       5.818993629612  xlo xhi
      0.000000000000       5.032667741458  ylo yhi
      0.000000000000      19.031378614316  zlo zhi
     -2.897864399027       0.015659144572       0.008981336331  xy xz yz
 
Masses
 
            1   107.86820000            # Ag
 
Atoms # atomic
 
         1    1       -0.026045982816       0.049762181710       0.168838995194
         2    1       -0.018213777419       0.054258459108       9.684530133709
         3    1        1.434505060618       2.566070878161       0.168842066849
         4    1        1.442337044657       2.570567025718       9.684533058534
         5    1        2.883406884789       0.049769680214       0.168859450706
         6    1        2.891239000703       0.054265601885       9.684550252747
         7    1       -1.471148939172       2.568319885324       4.926743324152
         8    1       -1.463213878613       2.572865095144      14.442432751140
         9    1       -0.022233412078       0.051985539389       4.926674042176
        10    1       -0.014302921316       0.056528474717      14.442373029943
        11    1        1.438336249667       2.568328551484       4.926666899695
        12    1        1.446277441454       2.572871109436      14.442351687148
        13    1        2.887306778538       0.051966185534       4.926715418980
        14    1        2.895242186450       0.056517127616      14.442400320280
        15    1        1.443058096745       4.246477934000       2.538541735456
        16    1        1.450963935640       4.251012484480      12.054232540631
        17    1        2.903854968550       1.736969310108       2.509888693151
        18    1        2.911778795642       1.741513919449      12.025555443991
        19    1       -1.465749867109       4.235576419656       2.511389143894
        20    1       -1.457842377976       4.240120864068      12.027091092941
        21    1       -0.026669542299       1.736255901912       2.511334858931
        22    1       -0.018753724111       1.740787392896      12.027037564694
        23    1        2.903138865129       3.400643540484       7.342028311760
        24    1        2.911049993699       3.405167564637      16.857727889241
        25    1        4.342324872016       0.901342924717       7.342136437061
        26    1        4.350227967161       0.905880510659      16.857836275973
        27    1       -0.027312262777       3.399845278997       7.343648987185
        28    1       -0.019393068205       3.404382598892      16.859313854009
        29    1        1.433527620642       0.890368664632       7.314649464561
        30    1        1.441429000771       0.894895801823      16.830337787178
