LAMMPS data file via write_data, version 23 Jun 2022, timestep = 36

4 atoms
1 atom types

0.0010040727015465563 4.0414150378524525 xlo xhi
0.0010040727020063148 4.041415039702993 ylo yhi
0.0010040727015326466 4.041415037796466 zlo zhi
-1.3277400930778045e-08 7.926060627903484e-10 -4.303860915983909e-09 xy xz yz

Masses

1 26.9815386

Atoms # atomic

1 1 0.0010040727022983691 0.0010040727020063148 0.0010040727015326466 1 1 0
2 1 0.001004066459899663 2.02120955405056 2.0212095552489986 0 0 0
3 1 2.0212095423966523 4.041415037551062 2.021209555248999 0 -1 0
4 1 2.021209549431658 2.021209551898638 4.041415037796465 0 0 0

Velocities

1 0 0 0
2 0 0 0
3 0 0 0
4 0 0 0
