 #Isolated Atom
  
           1  atoms
           1  atom types
 
      0.000000000000      10.000000000000  xlo xhi
      0.000000000000      10.000000000000  ylo yhi
      0.000000000000      10.000000000000  zlo zhi
 
Masses
 
            1   107.86820000            # Ag
 
Atoms # atomic
 
         1    1        0.000000000000       0.000000000000       0.000000000000
