 # Ag
  
          16  atoms
           1  atom types
 
      0.000000000000       5.842320236833  xlo xhi
      0.000000000000       5.059509484788  ylo yhi
      0.000000000000       9.621193597711  zlo zhi
     -2.921105237959       0.000090575985       0.000043192348  xy xz yz
 
Masses
 
            1   107.86820000            # Ag
 
Atoms # atomic
 
         1    1        2.937537833623       1.742525692591       1.224496577542
         2    1        1.477053416291       0.899413412801       3.629784577588
         3    1        5.858697953162       1.742525693445       1.224496575950
         4    1        4.398213532532       0.899413407295       3.629784575276
         5    1        4.398145331867       4.272280433322       1.224496576162
         6    1        2.937660915150       3.429168151588       3.629784575286
         7    1        7.319305450484       4.272280434392       1.224496579030
         8    1        5.858821029769       3.429168152442       3.629784577006
         9    1        2.937583124377       1.742547287776       6.035093376753
        10    1        1.477098707143       0.899435008700       8.440381377324
        11    1        5.858743241753       1.742547284542       6.035093374588
        12    1        4.398258823712       0.899435008095       8.440381374875
        13    1        4.398190623063       4.272302028445       6.035093379056
        14    1        2.937706202558       3.429189749305       8.440381376461
        15    1        7.319350740380       4.272302027749       6.035093375081
        16    1        5.858866320838       3.429189751703       8.440381377302
