LAMMPS data file via write_data, version 23 Jun 2022, timestep = 60

2 atoms
1 atom types

-0.0374010977936554 2.946237405186653 xlo xhi
-0.0323900753193772 2.5514986749653787 ylo yhi
-0.062320076721592794 4.909207268306588 zlo zhi
0 0 0 xy xz yz

Masses

1 107.8682

Atoms # atomic

1 1 -0.02063603268215511 1.9628168600671843 1.203134627885793 1 0 0
2 1 1.471183218807717 0.6708724849149872 3.6888983004490834 0 0 0

Velocities

1 0 0 0
2 0 0 0
