 # Ag
  
           2  atoms
           1  atom types
 
      0.000000000000       2.908836307393  xlo xhi
      0.000000000000       2.519108599646  ylo yhi
      0.000000000000       4.846887191585  zlo zhi
     -1.454406959408       0.000039025712       0.000017402986  xy xz yz
 
Masses
 
            1   107.86820000            # Ag
 
Atoms # atomic
 
         1    1        2.925136307453       1.735195396565       1.233733790395
         2    1        1.470807656767       0.895621317797       3.657167298333
