 # Ag
  
          31  atoms
           1  atom types
 
      0.000000000000       8.278461000000  xlo xhi
      0.000000000000       8.278461000000  ylo yhi
      0.000000000000       8.278461000000  zlo zhi
 
Masses
 
            1   107.86820000            # Ag
 
Atoms # atomic
 
         1    1        0.016985682592       0.019920023667       4.179145709206
         2    1        0.078342737567       4.214078347115       0.024130533533
         3    1        0.099776256564       4.216668693357       4.144823517997
         4    1        4.197074422384       0.015048825416       0.001890640341
         5    1        4.219435497583       0.061738598270       4.170703796474
         6    1        4.156880836327       4.221661113773       0.022357976699
         7    1        4.211372951237       4.152480733094       4.186787649500
         8    1        0.008759664921       2.093199070199       2.159094871354
         9    1        0.065870234261       2.098766623801       6.218071026767
        10    1        0.082167748456       6.273863536713       2.071032802969
        11    1        0.068997756988       6.233457117716       6.296091523761
        12    1        4.229327583295       2.129602091335       2.124270826490
        13    1        4.203336484799       2.098337817025       6.283871119110
        14    1        4.186005435317       6.269159447406       2.083544734820
        15    1        4.201668933053       6.210873151641       6.267464023650
        16    1        2.089076237803       0.030265691740       2.117246215203
        17    1        2.122270824282       0.084407661973       6.217833254067
        18    1        2.090260877614       4.189885570163       2.157063045164
        19    1        2.098609244406       4.140583537389       6.291219480976
        20    1        6.227092499359       0.037629927104       2.129868467100
        21    1        6.301655174767       0.042838826756       6.306414881783
        22    1        6.307797650918       4.218732834608       2.101990491973
        23    1        6.264819891506       4.222946985009       6.224387280089
        24    1        2.147436488584       2.141225307253       0.083557410450
        25    1        2.092133111703       2.157885164195       4.193306654313
        26    1        2.095605179954       6.235101393559       0.011047337754
        27    1        2.162202490555       6.236079877733       4.235291539344
        28    1        6.262028206006       2.085309625313       0.028013177541
        29    1        6.210897390865       2.070171723355       4.195193374504
        30    1        6.248773769554       6.228359696247       0.060542938681
        31    1        6.239534030032       6.256458686556       4.196944431363
