 # Fcc Ag oriented X=[100] Y=[010] Z=[001
  
          33  atoms
           1  atom types
 
      0.000000000000       8.475149078024  xlo xhi
      0.000000000000       8.475149078024  ylo yhi
      0.000000000000       8.475149078024  zlo zhi
 
Masses
 
            1   107.86820000            # Ag
 
Atoms # atomic
 
         1    1       -0.371861458163      -0.371861458163      -0.371861458163
         2    1        2.490648727669       2.490648727669      -0.371861458163
         3    1       -0.371861458163       2.490648727669       2.490648727669
         4    1        2.490648727669      -0.371861458163       2.490648727669
         5    1        4.209753116227       0.018940098470       0.018940098470
         6    1        6.384183231303       2.099847171036       0.018940098470
         7    1        4.209753116227       2.099847171036       2.099847171036
         8    1        6.384183231303       0.018940098470       2.099847171036
         9    1        0.018940098470       4.209753116227       0.018940098470
        10    1        2.099847171036       6.384183231303       0.018940098470
        11    1        0.018940098470       6.384183231303       2.099847171036
        12    1        2.099847171036       4.209753116227       2.099847171036
        13    1        4.336847338182       4.336847338182      -0.011716195272
        14    1        6.257089009348       6.257089009348      -0.011716195272
        15    1        4.336847338182       6.257089009348       2.130503464778
        16    1        6.257089009348       4.336847338182       2.130503464778
        17    1        0.018940098470       0.018940098470       4.209753116227
        18    1        2.099847171036       2.099847171036       4.209753116227
        19    1        0.018940098470       2.099847171036       6.384183231303
        20    1        2.099847171036       0.018940098470       6.384183231303
        21    1        4.336847338182      -0.011716195272       4.336847338182
        22    1        6.257089009348       2.130503464778       4.336847338182
        23    1        4.336847338182       2.130503464778       6.257089009348
        24    1        6.257089009348      -0.011716195272       6.257089009348
        25    1       -0.011716195272       4.336847338182       4.336847338182
        26    1        2.130503464778       6.257089009348       4.336847338182
        27    1       -0.011716195272       6.257089009348       6.257089009348
        28    1        2.130503464778       4.336847338182       6.257089009348
        29    1        4.224528830175       4.224528830175       4.224528830175
        30    1        6.369407517355       6.369407517355       4.224528830175
        31    1        4.224528830175       6.369407517355       6.369407517355
        32    1        6.369407517355       4.224528830175       6.369407517355
        33    1        1.059393634753       1.059393634753       1.059393634753
