 # Fcc Ag oriented X=[100] Y=[010] Z=[001
  
          33  atoms
           1  atom types
 
      0.000000000000       8.451900122628  xlo xhi
      0.000000000000       8.451900122628  ylo yhi
      0.000000000000       8.451900122628  zlo zhi
 
Masses
 
            1   107.86820000            # Ag
 
Atoms # atomic
 
         1    1        0.035951209466       0.035951209466       0.035951209466
         2    1        2.112975030657       2.112975030657      -0.507349681214
         3    1       -0.507349681214       2.112975030657       2.112975030657
         4    1        2.112975030657      -0.507349681214       2.112975030657
         5    1        4.189998851849       0.035951209466       0.035951209466
         6    1        6.338925091971       2.112975030657      -0.141357375357
         7    1        4.733299742528       2.112975030657       2.112975030657
         8    1        6.338925091971      -0.141357375357       2.112975030657
         9    1        0.035951209466       4.189998851849       0.035951209466
        10    1        2.112975030657       6.338925091971      -0.141357375357
        11    1       -0.141357375357       6.338925091971       2.112975030657
        12    1        2.112975030657       4.733299742528       2.112975030657
        13    1        4.189998851849       4.189998851849       0.035951209466
        14    1        6.338925091971       6.338925091971      -0.050623131737
        15    1        4.367307436671       6.338925091971       2.112975030657
        16    1        6.338925091971       4.367307436671       2.112975030657
        17    1        0.035951209466       0.035951209466       4.189998851849
        18    1        2.112975030657       2.112975030657       4.733299742528
        19    1       -0.141357375357       2.112975030657       6.338925091971
        20    1        2.112975030657      -0.141357375357       6.338925091971
        21    1        4.189998851849       0.035951209466       4.189998851849
        22    1        6.338925091971       2.112975030657       4.367307436671
        23    1        4.367307436671       2.112975030657       6.338925091971
        24    1        6.338925091971      -0.050623131737       6.338925091971
        25    1        0.035951209466       4.189998851849       4.189998851849
        26    1        2.112975030657       6.338925091971       4.367307436671
        27    1       -0.050623131737       6.338925091971       6.338925091971
        28    1        2.112975030657       4.367307436671       6.338925091971
        29    1        4.189998851849       4.189998851849       4.189998851849
        30    1        6.338925091971       6.338925091971       4.276573193051
        31    1        4.276573193051       6.338925091971       6.338925091971
        32    1        6.338925091971       4.276573193051       6.338925091971
        33    1        2.112975030657       2.112975030657       2.112975030657
