 # Ag
  
          24  atoms
           1  atom types
 
      0.000000000000      14.805424380000  xlo xhi
      0.000000000000       5.774356220000  ylo yhi
      0.000000000000       5.067600000000  zlo zhi
     -1.172471600000      -1.172473020000       2.768143800000  xy xz yz
 
Masses
 
            1   107.86820000            # Ag
 
Atoms # atomic
 
         1    1        7.454850390000       0.049509240000       0.044958970000
         2    1        1.606286530000       3.371200140000       2.015510020000
         3    1        4.728247850000       0.998947820000       0.608263110000
         4    1        0.052138200000       0.049509240000       0.044958970000
         5    1        9.008998720000       3.371200140000       2.015510020000
         6    1       12.130960040000       0.998947820000       0.608263110000
         7    1        6.868614590000       2.936687350000       0.044958970000
         8    1        1.020050730000       6.258378250000       2.015510020000
         9    1        4.142012050000       3.886125930000       0.608263110000
        10    1       -0.534097600000       2.936687350000       0.044958970000
        11    1        8.422762920000       6.258378250000       2.015510020000
        12    1       11.544724240000       3.886125930000       0.608263110000
        13    1        6.868613880000       1.433581140000       2.578758970000
        14    1        1.020050020000       4.755272040000       4.549310020000
        15    1        4.142011340000       2.383019720000       3.142063110000
        16    1       -0.534098310000       1.433581140000       2.578758970000
        17    1        8.422762210000       4.755272040000       4.549310020000
        18    1       11.544723530000       2.383019720000       3.142063110000
        19    1        6.282378080000       4.320759250000       2.578758970000
        20    1        0.433814220000       7.642450150000       4.549310020000
        21    1        3.555775540000       5.270197830000       3.142063110000
        22    1       -1.120334110000       4.320759250000       2.578758970000
        23    1        7.836526410000       7.642450150000       4.549310020000
        24    1       10.958487730000       5.270197830000       3.122063110000
