LAMMPS data file via write_data, version 23 Jun 2022, timestep = 403

3 atoms
1 atom types

-0.11487636200324329 7.517588552003243 xlo xhi
-0.044803648881586514 2.9319817588815855 ylo yhi
-0.0393198760904168 2.5731198760904195 zlo zhi
0 0 0 xy xz yz

Masses

1 24.305

Atoms # atomic

1 1 7.168397314547317 2.466400477862484 0.0070534139689773165 0 -1 0
2 1 1.8812040986632395 0.9780077650411255 1.3132733501455518 2 1 0
3 1 4.823125618573151 0.9780077740210699 1.3132732516117949 0 0 0

Velocities

1 0 0 0
2 0 0 0
3 0 0 0
