 # Ag
  
           4  atoms
           1  atom types
 
      0.000000000000       2.913429312240  xlo xhi
      0.000000000000       2.523102893612  ylo yhi
      0.000000000000       9.670898596152  zlo zhi
     -1.456709693495      -0.000110124757      -0.000006657228  xy xz yz
 
Masses
 
            1   24.30500000             # Mg
 
Atoms # atomic
 
         1    1       -0.013857618049       0.060918821703       0.061827221317
         2    1       -0.013905763917       0.060937624457       4.897275029797
         3    1       -0.013879285756       1.742998809745       2.479552116575
         4    1        1.442746302468       0.901986001119       7.315001719138
