 #  Simple cubic Ag oriented X=[100] Y=[
  
           1  atoms
           1  atom types
 
      0.000000000000       2.741727819329  xlo xhi
      0.000000000000       2.741727817150  ylo yhi
      0.000000000000       2.741727818875  zlo zhi
     -0.000000001078      -0.000000003601      -0.000000004722  xy xz yz
 
Masses
 
            1   107.86820000            # Ag
 
Atoms # atomic
 
         1    1        2.741727815212      -0.000000004199       2.741727818844
