 # Ag4
  
           4  atoms
           1  atom types
 
      0.000000000000       4.140592304565  xlo xhi
      0.000000000000       4.140592304565  ylo yhi
      0.000000000000       4.140592304565  zlo zhi
 
Masses
 
            1   107.86820000            # Ag
 
Atoms # atomic
 
         1    1        0.000000000000       0.000000000000       0.000000000000
         2    1        0.000000000000       2.070296152283       2.070296152283
         3    1        2.070296152283       0.000000000000       2.070296152283
         4    1        2.070296152283       2.070296152283       0.000000000000
