 # Bcc Ag oriented X=[100] Y=[010] Z=[00
  
          16  atoms
           1  atom types
 
      0.000000000000       6.593458550000  xlo xhi
      0.000000000000       6.593458560000  ylo yhi
      0.000000000000       6.593458560000  zlo zhi
      0.000000020000       0.000000020000       0.000000000000  xy xz yz
 
Masses
 
            1   107.86820000            # Ag
 
Atoms # atomic
 
         1    1        0.000000000000       0.000000000000       0.000000000000
         2    1        1.648364645000       1.648364637500       1.648364637500
         3    1        3.296729290000       0.000000005000       6.593458555000
         4    1        4.945093925000       1.648364642500       1.648364642500
         5    1        0.000000015000       3.296729280000       0.000000000000
         6    1        1.648364660000       4.945093927500       1.648364637500
         7    1        3.296729305000       3.296729285000       6.593458555000
         8    1        4.945093930000       4.945093922500       1.648364642500
         9    1        0.000000015000       0.000000000000       3.296729280000
        10    1        1.648364660000       1.648364637500       4.945093917500
        11    1        3.296729285000       0.000000005000       3.296729285000
        12    1        4.945093930000       1.648364642500       4.945093922500
        13    1        0.000000020000       3.296729280000       3.296729280000
        14    1        1.648364665000       4.945093917500       4.945093917500
        15    1        3.296729300000       3.296729285000       3.296729285000
        16    1        4.945093944970       4.945093922500       4.925093922500
