LAMMPS data file via write_data, version 23 Jun 2022, timestep = 18

2 atoms
1 atom types

-0.006536102218100514 3.3032653769061016 xlo xhi
-0.006536102231520746 3.3032653836885215 ylo yhi
-0.00653610223054729 3.3032653831965475 zlo zhi
0 0 0 xy xz yz

Masses

1 107.8682

Atoms # atomic

1 1 -0.006536096440783212 3.3032653836235144 -0.00653610223054729 0 -1 0
2 1 1.648364643121318 1.6483646406634938 1.648364640483 0 0 0

Velocities

1 0 0 0
2 0 0 0
