 # Bcc Ag oriented X=[100] Y=[010] Z=[00
  
           2  atoms
           1  atom types
 
      0.000000000000       3.296729274688  xlo xhi
      0.000000000000       3.296729281457  ylo yhi
      0.000000000000       3.296729280966  zlo zhi
      0.000000013630       0.000000009387      -0.000000000261  xy xz yz
 
Masses
 
            1   107.86820000            # Ag
 
Atoms # atomic
 
         1    1        0.000000000233       0.000000000421       0.000000000031
         2    1        1.648364648620       1.648364640178       1.648364640452
