 # Ag
  
           8  atoms
           1  atom types
 
      0.000000000000       5.850570295855  xlo xhi
      0.000000000000       5.066744960476  ylo yhi
      0.000000000000       4.776961663292  zlo zhi
     -2.925275234291       2.925272745291       1.688918720955  xy xz yz
 
Masses
 
            1   107.86820000            # Ag
 
Atoms # atomic
 
         1    1        1.472293876559       1.032311123524       0.602228935251
         2    1        4.397579024487       1.032311123524       0.602228935251
         3    1        2.934941407341       3.565683603761       0.602228935251
         4    1        5.860226555269       3.565683603761       0.602228935251
         5    1        2.934930249205       1.876770484001       2.990709766897
         6    1        5.860215397132       1.876770484001       2.990709766897
         7    1        4.397577779987       4.410142964239       2.990709766897
         8    1        7.308720765319       4.401978016778       3.002256752221
