LAMMPS data file via write_data, version 23 Jun 2022, timestep = 16

4 atoms
1 atom types

0.005229446181553016 4.135362858383447 xlo xhi
0.005229446181553016 4.135362858383447 ylo yhi
0.005229446181553016 4.135362858383447 zlo zhi

Masses

1 107.8682

Atoms # atomic

1 1 0.005229446181802444 0.005229446181802553 0.00522944618180254 0 0 0
2 1 0.005229446181802529 2.0702961522827494 2.07029615228275 0 0 0
3 1 2.0702961522827494 0.00522944618180266 2.07029615228275 0 0 0
4 1 2.0702961522827494 2.0702961522827494 0.005229446181802634 0 0 0

Velocities

1 0 0 0
2 0 0 0
3 0 0 0
4 0 0 0
