 # Fcc Ag oriented X=[100] Y=[010] Z=[001
  
          33  atoms
           1  atom types
 
      0.000000000000       8.408346399763  xlo xhi
      0.000000000000       8.474822530352  ylo yhi
      0.000000000000       8.474822530352  zlo zhi
 
Masses
 
            1   107.86820000            # Ag
 
Atoms # atomic
 
         1    1        2.208056385785       2.439744071153       0.000000000000
         2    1       -0.000000000000       2.008053706228       2.008053706228
         3    1        2.208056385785       0.000000000000       2.439744071153
         4    1        4.204173199881       0.000000000000       0.000000000000
         5    1        6.200290013978       2.439744071153       0.000000000000
         6    1        4.204173199881       2.145669572677       2.145669572677
         7    1        6.200290013978       0.000000000000       2.439744071153
         8    1       -0.000000000000       4.237411265176       0.000000000000
         9    1        2.208056385785       6.035078459198       0.000000000000
        10    1       -0.000000000000       6.466768824123       2.008053706228
        11    1        2.054841216558       4.237411265176       2.201348216865
        12    1        4.204173199881       4.237411265176       0.000000000000
        13    1        6.200290013978       6.035078459198       0.000000000000
        14    1        4.204173199881       6.329152957674       2.145669572677
        15    1        6.353505183205       4.237411265176       2.201348216865
        16    1        0.000000000000       0.000000000000       4.237411265176
        17    1        2.054841216558       2.201348216865       4.237411265176
        18    1       -0.000000000000       2.008053706228       6.466768824123
        19    1        2.208056385785       0.000000000000       6.035078459198
        20    1        4.204173199881       0.000000000000       4.237411265176
        21    1        6.353505183205       2.201348216865       4.237411265176
        22    1        4.204173199881       2.145669572677       6.329152957674
        23    1        6.200290013978       0.000000000000       6.035078459198
        24    1       -0.000000000000       4.237411265176       4.237411265176
        25    1        2.054841216558       6.273474313486       4.237411265176
        26    1       -0.000000000000       6.466768824123       6.466768824123
        27    1        2.054841216558       4.237411265176       6.273474313486
        28    1        4.204173199881       4.237411265176       4.237411265176
        29    1        6.353505183205       6.273474313486       4.237411265176
        30    1        4.204173199881       6.329152957674       6.329152957674
        31    1        6.353505183205       4.237411265176       6.273474313486
        32    1        1.260628592697       0.000000000000       0.000000000000
        33    1        7.147717807066       0.000000000000       0.000000000000
