 # Fcc Ag oriented X=[100] Y=[010] Z=[001
  
          33  atoms
           1  atom types
 
      0.000000000000       8.475328047694  xlo xhi
      0.000000000000       8.468270312783  ylo yhi
      0.000000000000       8.461760723549  zlo zhi
      0.345808365524       0.345808365524       0.331975221615  xy xz yz
 
Masses
 
            1   107.86820000            # Ag
 
Atoms # atomic
 
         1    1        2.507663405553       2.407351000703       0.039139729686
         2    1        0.235689153466       2.500128825879       2.403966096167
         3    1        2.507663405553       0.133483210573       2.403966096167
         4    1        4.237664023847       0.000000000000       0.000000000000
         5    1        6.485681051439       2.072554006881       0.000000000000
         6    1        4.499449119390       2.240913117651       2.154720630203
         7    1        6.485681051439       0.081248773401       2.070960827312
         8    1        0.172904182762       4.234135156392       0.000000000000
         9    1        2.335455361779       6.395716305902       0.000000000000
        10    1        0.345808365524       6.476965079303       2.070960827312
        11    1        2.422632499641       4.404269037028       2.154720630203
        12    1        4.410568206609       4.234135156392       0.000000000000
        13    1        6.313473007665       6.060919312080      -0.039139729686
        14    1        4.583472389371       6.414661294952       2.135756868931
        15    1        6.596333332631       4.317926034324       2.135756868931
        16    1        0.172904182762       0.165987610808       4.230880361775
        17    1        2.422632499641       2.325721530023       4.316413570261
        18    1        0.345808365524       2.323280455095       6.390799896237
        19    1        2.335455361779       0.250726448214       6.390799896237
        20    1        4.410568206609       0.165987610808       4.230880361775
        21    1        6.596333332631       2.303387506571       4.230880361775
        22    1        4.583472389371       2.385584239447       6.326003854618
        23    1        6.313473007665       0.198492011042       6.057794627382
        24    1        0.345808365524       4.400122767199       4.230880361775
        25    1        2.570611446110       6.496858027827       4.230880361775
        26    1        0.455927577581       6.300116708519       6.057794627382
        27    1        2.570611446110       4.482319500074       6.326003854618
        28    1        4.583472389371       4.400122767199       4.230880361775
        29    1        6.744312279101       6.474524004375       4.145347153288
        30    1        4.667495659351       6.559332416748       6.307040093346
        31    1        6.744312279101       4.395976497370       6.307040093346
        32    1        0.723609559015       0.694663483207       0.667944565331
        33    1        8.443335219727       8.105582051191       7.793816158218
