 #  Simple cubic Ag oriented X=[100] Y=[
  
           7  atoms
           1  atom types
 
      0.000000000000       5.434619465405  xlo xhi
      0.000000000000       5.434619464798  ylo yhi
      0.000000000000       5.434619470485  zlo zhi
      0.000000003693       0.000000011395       0.000000019537  xy xz yz
 
Masses
 
            1   107.86820000            # Ag
 
Atoms # atomic
 
         1    1        2.717309750324       5.434619460980       5.434619447630
         2    1        5.434619461865       2.717309744668       0.000000007772
         3    1        2.717309749617       2.717309766168       5.434619464033
         4    1        0.000000018559       5.434619445081       2.717309742744
         5    1        2.717309731205       5.434619447409       2.717309751746
         6    1        0.000000011883       2.717309771261       2.717309719953
         7    1        2.717309736810       2.717309756576       2.717309738068
