 # Ag
  
          31  atoms
           1  atom types
 
      0.000000000000      10.048710288337  xlo xhi
      0.000000000000       5.893274413307  ylo yhi
      0.000000000000       9.530114335001  zlo zhi
      0.000038056844       0.000008700247       0.000123812136  xy xz yz
 
Masses
 
            1   107.86820000            # Ag
 
Atoms # atomic
 
         1    1        0.896385358400       0.053005754238       8.289118828493
         2    1        0.902817187519       2.999483829520       3.524059069730
         3    1        0.894659439967       2.999642168512       8.289125358166
         4    1        5.924053111022       0.052874681694       3.524040436921
         5    1        5.918196325844       0.053022729063       8.289095336374
         6    1        5.923102698008       2.999509898963       3.524040246899
         7    1        5.914341703735       2.999660575341       8.289095546521
         8    1        1.704991007775       1.511317457655       1.172126487106
         9    1        1.704974699119       1.511405901992       5.876048767288
        10    1        1.704981199752       4.487484690461       1.172134812679
        11    1        1.704959540591       4.487550976045       5.876035778706
        12    1        6.748157554357       1.524551483241       1.147494075131
        13    1        6.748147277692       1.524608927556       5.900617638696
        14    1        6.748178949003       4.474368398397       1.147492878177
        15    1        6.748173904811       4.474436687670       5.900619791376
        16    1        3.376341547470       1.510999020669       3.524079125331
        17    1        3.402072382571       1.527220878040       8.289109974713
        18    1        3.376392449036       4.487817469763       3.524076074293
        19    1        3.402079109416       4.472085294408       8.289111930296
        20    1        8.474672537800       1.511195574267       3.524073496349
        21    1        8.433353037423       1.529159183924       8.289095881227
        22    1        8.474687018349       4.487614823603       3.524074625889
        23    1        8.433377121579       4.470136683802       8.289100697542
        24    1        4.221797215681       0.052802259561       1.149812253563
        25    1        4.221768100248       0.052878632994       5.898305758497
        26    1        4.220880349642       2.999443235977       1.150545268476
        27    1        4.220855416325       2.999524975338       5.897568330638
        28    1        9.270126982522       0.052797351028       1.161075635001
        29    1        9.270159870509       0.052870394847       5.887043476889
        30    1        9.264084350066       2.999426193924       1.148397337973
        31    1        9.264088392774       2.999493304636       5.899740609543
