 # Ag
  
          32  atoms
           1  atom types
 
      0.000000000000       5.826858620098  xlo xhi
      0.000000000000       5.046205784993  ylo yhi
      0.000000000000      19.341797189054  zlo zhi
     -2.913419379484      -0.000220256727      -0.000013318995  xy xz yz
 
Masses
 
            1   24.30500000             # Mg
 
Atoms # atomic
 
         1    1       -0.013857617195       0.060918821453       0.061827221811
         2    1       -0.013905761348       0.060937624198       4.897275031621
         3    1       -0.013879302519       1.722998807824       2.479552114816
         4    1        1.442746182384       0.901985991210       7.335001716298
         5    1        2.899571692854       0.060918816453       0.061827221811
         6    1        2.899523548701       0.060937619198       4.897275031621
         7    1        2.899550025962       1.742998802824       2.479552121712
         8    1        4.356175616731       0.901985993106       7.315001716299
         9    1       -1.470567311937       2.584021713949       0.061827226811
        10    1       -1.470615456090       2.584040516695       4.897275026621
        11    1       -1.470588978829       4.266101700320       2.479552116712
        12    1       -0.013963388059       3.425088890602       7.315001721299
        13    1        1.442861998112       2.584021718949       0.061827226811
        14    1        1.442813853959       2.584040511695       4.897275026621
        15    1        1.442840331220       4.266101705320       2.479552116712
        16    1        2.899465921989       3.425088885602       7.315001721299
        17    1       -0.013967745559       0.060912156955       9.732725821338
        18    1       -0.014015889711       0.060930959701      14.568173621148
        19    1       -0.013989412451       1.742992143326      12.150450711239
        20    1        1.442636168319       0.901979333609      16.985900315826
        21    1        2.899461564490       0.060912161955       9.732725821338
        22    1        2.899413420337       0.060930954701      14.568173631148
        23    1        2.899439897598       1.742992148326      12.150450711239
        24    1        4.356065488368       0.901979338608      16.985900315826
        25    1       -1.470677440301       2.584015059452       9.732725816338
        26    1       -1.470725584454       2.584033852197      14.568173626148
        27    1       -1.470699107193       4.266095045823      12.150450716238
        28    1       -0.014073516423       3.425082226105      16.985900320826
        29    1        1.442751869748       2.584015054452       9.732725816338
        30    1        1.442703725595       2.584033857197      14.568173626148
        31    1        1.442730202856       4.266095040823      12.150450716238
        32    1        2.899355793626       3.425082231105      16.985900320826
