LAMMPS data file via write_data, version 23 Jun 2022, timestep = 258

4 atoms
1 atom types

-0.0364856014285376 2.9499149136685414 xlo xhi
-0.031597446401999386 2.554700340013997 ylo yhi
-0.1211110735217107 9.792009669673709 zlo zhi
0 0 0 xy xz yz

Masses

1 24.305

Atoms # atomic

1 1 2.562363878597265 0.030863342588699008 -0.057735474303917914 -1 0 0
2 1 2.5623638785972638 0.030863342588698862 4.898824897293792 -1 0 0
3 1 1.0691636210487259 1.3240122357967106 2.4205447114949394 0 0 0
4 1 1.0691636210487214 1.3240122357966873 7.377105083092649 0 0 0

Velocities

1 0 0 0
2 0 0 0
3 0 0 0
4 0 0 0
